# epsilon and Z* of atoms 1 3
   4.46664232    0.00000000    0.00000000    0.00000000    4.46664232    0.00000000    0.00000000    0.00000000    4.68631509 
   2.51940463    0.00000000    0.00000000    0.00000000    2.51940463    0.00000000    0.00000000    0.00000000    2.67878546 
  -2.51940463   -0.00000000    0.00000000   -0.00000000   -2.51940463   -0.00000000    0.00000000    0.00000000   -2.67878546 
